# The compiler to be used
CC = gcc

# The .c files
SRC = main.c school.c

# The .o files
OBJ = $(SRC:.c=.o)

# The name of the executable
NAME = school

# The program to delete files
RM = rm -f

#  favorite compiler flags: -Wall -Werror -Wextra -pedantic
CFLAGS = -Wall -Werror -Wextra -pedantic

# The rule builds your executable
all : $(OBJ)
	$(CC) $(OBJ) -o $(NAME)

# Deletes all Emacs and Vim temporary files along with the executable
clean :
	$(RM) *~ $(NAME)

# Deletes the object files
oclean :
	$(RM) $(OBJ)

# Deletes all Emacs and Vim temporary files, the executable, and the object files
fclean : clean oclean

# Forces recompilation of all source files
re : oclean all
